nqpoint: 102    
npath: 2      
segment_nqpoint:
- 51
- 51
labels:
- [ 'Gamma', 'M' ]
- [ 'M', 'K' ]
reciprocal_lattice:
- [   0.39802136,   0.22979768,   0.00000000 ] # a*
- [   0.00000000,   0.45959536,   0.00000000 ] # b*
- [   0.00000000,   0.00000000,   0.12974771 ] # c*
natom: 4      
lattice:
- [     2.512428000000000,     0.000000000000000,     0.000000000000000 ] # a
- [    -1.256214000000000,     2.175827000000000,     0.000000000000000 ] # b
- [     0.000000000000000,     0.000000000000000,     7.707265000000000 ] # c
points:
- symbol: B  # 1
  coordinates: [  0.666666999999997,  0.333333000000003,  0.750000000000000 ]
  mass: 10.811000
- symbol: B  # 2
  coordinates: [  0.333333000000003,  0.666666999999997,  0.250000000000000 ]
  mass: 10.811000
- symbol: N  # 3
  coordinates: [  0.666666999999997,  0.333333000000003,  0.250000000000000 ]
  mass: 14.006700
- symbol: N  # 4
  coordinates: [  0.333333000000003,  0.666666999999997,  0.750000000000000 ]
  mass: 14.006700

phonon:
- q-position: [    0.0000000,    0.0000000,    0.0000000 ]
  distance:    0.0000000
  band:
  - # 1
    frequency:   -0.0076017173
    eigenvector:
    - # atom 1
      - [ -0.23337908974420,  0.00000000000000 ]
      - [  0.40415854333315,  0.00000000000000 ]
      - [  0.00000000019360, -0.00000000000001 ]
    - # atom 2
      - [ -0.23337908974418, -0.00000000000000 ]
      - [  0.40415854333292, -0.00000000000000 ]
      - [  0.00000000019363, -0.00000000000001 ]
    - # atom 3
      - [ -0.26564030592878, -0.00000000000000 ]
      - [  0.46002749938131, -0.00000000000000 ]
      - [  0.00000000022040, -0.00000000000001 ]
    - # atom 4
      - [ -0.26564030592881, -0.00000000000000 ]
      - [  0.46002749938157,  0.00000000000000 ]
      - [  0.00000000022037, -0.00000000000001 ]
  - # 2
    frequency:   -0.0076013951
    eigenvector:
    - # atom 1
      - [  0.40415812967027,  0.00000000000000 ]
      - [  0.23337885095500,  0.00000000000000 ]
      - [  0.00000000039704, -0.00000000000000 ]
    - # atom 2
      - [  0.40415812967054,  0.00000000000000 ]
      - [  0.23337885095503,  0.00000000000000 ]
      - [  0.00000000039704, -0.00000000000000 ]
    - # atom 3
      - [  0.46002786280582,  0.00000000000000 ]
      - [  0.26564051571757,  0.00000000000000 ]
      - [  0.00000000045193, -0.00000000000000 ]
    - # atom 4
      - [  0.46002786280551,  0.00000000000000 ]
      - [  0.26564051571754,  0.00000000000000 ]
      - [  0.00000000045193, -0.00000000000000 ]
  - # 3
    frequency:   -0.0043401907
    eigenvector:
    - # atom 1
      - [  0.00000000024703,  0.00000000000000 ]
      - [  0.00000000036609,  0.00000000000001 ]
      - [ -0.46669754805963,  0.00000000946743 ]
    - # atom 2
      - [  0.00000000024699, -0.00000000000000 ]
      - [  0.00000000036634,  0.00000000000001 ]
      - [ -0.46669754805966,  0.00000000946743 ]
    - # atom 3
      - [  0.00000000028114, -0.00000000000000 ]
      - [  0.00000000041698,  0.00000000000001 ]
      - [ -0.53121878603371,  0.00000001077631 ]
    - # atom 4
      - [  0.00000000028118,  0.00000000000000 ]
      - [  0.00000000041670,  0.00000000000001 ]
      - [ -0.53121878603368,  0.00000001077631 ]
  - # 4
    frequency:    0.6718253214
    eigenvector:
    - # atom 1
      - [  0.41563334426091,  0.00000000000000 ]
      - [  0.21256299305401,  0.00000000000000 ]
      - [ -0.00000000000004, -0.00000000000000 ]
    - # atom 2
      - [ -0.41563334426064, -0.00000000000000 ]
      - [ -0.21256299305395, -0.00000000000000 ]
      - [ -0.00000000000004, -0.00000000000000 ]
    - # atom 3
      - [ -0.47284965316275, -0.00000000000000 ]
      - [ -0.24182452858683, -0.00000000000000 ]
      - [ -0.00000000000004, -0.00000000000000 ]
    - # atom 4
      - [  0.47284965316306,  0.00000000000000 ]
      - [  0.24182452858690,  0.00000000000000 ]
      - [ -0.00000000000004, -0.00000000000000 ]
  - # 5
    frequency:    0.6718253214
    eigenvector:
    - # atom 1
      - [ -0.21256299305397,  0.00000000000000 ]
      - [  0.41563334426066,  0.00000000000001 ]
      - [ -0.00000000000011, -0.00000000000000 ]
    - # atom 2
      - [  0.21256299305399,  0.00000000000000 ]
      - [ -0.41563334426089, -0.00000000000001 ]
      - [ -0.00000000000014, -0.00000000000000 ]
    - # atom 3
      - [  0.24182452858688,  0.00000000000000 ]
      - [ -0.47284965316304, -0.00000000000001 ]
      - [ -0.00000000000016, -0.00000000000000 ]
    - # atom 4
      - [ -0.24182452858685, -0.00000000000000 ]
      - [  0.47284965316277,  0.00000000000001 ]
      - [ -0.00000000000012, -0.00000000000000 ]
  - # 6
    frequency:    1.4872747389
    eigenvector:
    - # atom 1
      - [  0.00000000000000,  0.00000000000000 ]
      - [ -0.00000000000000, -0.00000000000000 ]
      - [  0.46758294881096,  0.00033552845860 ]
    - # atom 2
      - [ -0.00000000000001, -0.00000000000000 ]
      - [  0.00000000000002,  0.00000000000000 ]
      - [ -0.46758294881093, -0.00033552845860 ]
    - # atom 3
      - [ -0.00000000000001, -0.00000000000000 ]
      - [  0.00000000000003,  0.00000000000000 ]
      - [ -0.53043937308651, -0.00038063301000 ]
    - # atom 4
      - [  0.00000000000000, -0.00000000000000 ]
      - [ -0.00000000000000, -0.00000000000000 ]
      - [  0.53043937308654,  0.00038063301000 ]
  - # 7
    frequency:   23.2221421248
    eigenvector:
    - # atom 1
      - [  0.00000000000000,  0.00000000000000 ]
      - [ -0.00000000000000, -0.00000000000000 ]
      - [  0.53121856448570,  0.00048516065771 ]
    - # atom 2
      - [  0.00000000000000, -0.00000000000000 ]
      - [  0.00000000000000,  0.00000000000000 ]
      - [  0.53121856448571,  0.00048516065771 ]
    - # atom 3
      - [  0.00000000000000, -0.00000000000000 ]
      - [  0.00000000000000, -0.00000000000000 ]
      - [ -0.46669735342063, -0.00042623358834 ]
    - # atom 4
      - [  0.00000000000000,  0.00000000000000 ]
      - [ -0.00000000000000, -0.00000000000000 ]
      - [ -0.46669735342062, -0.00042623358834 ]
  - # 8
    frequency:   24.1235259983
    eigenvector:
    - # atom 1
      - [ -0.00000000000000,  0.00000000000000 ]
      - [ -0.00000000000000, -0.00000000000000 ]
      - [ -0.53043927845459, -0.00049525195141 ]
    - # atom 2
      - [ -0.00000000000000, -0.00000000000000 ]
      - [  0.00000000000000, -0.00000000000000 ]
      - [  0.53043927845458,  0.00049525195141 ]
    - # atom 3
      - [  0.00000000000000,  0.00000000000000 ]
      - [ -0.00000000000000, -0.00000000000000 ]
      - [ -0.46758286539277, -0.00043656519405 ]
    - # atom 4
      - [ -0.00000000000000, -0.00000000000000 ]
      - [ -0.00000000000000, -0.00000000000000 ]
      - [  0.46758286539278,  0.00043656519405 ]
  - # 9
    frequency:   40.2216639566
    eigenvector:
    - # atom 1
      - [ -0.26560777936342,  0.00000000000000 ]
      - [  0.46004628013138,  0.00000000000000 ]
      - [  0.00000000000000, -0.00000000000000 ]
    - # atom 2
      - [ -0.26560777936342, -0.00000000000000 ]
      - [  0.46004628013138, -0.00000000000000 ]
      - [ -0.00000000000000,  0.00000000000000 ]
    - # atom 3
      - [  0.23335051348416, -0.00000000000000 ]
      - [ -0.40417504318747,  0.00000000000000 ]
      - [  0.00000000000000, -0.00000000000000 ]
    - # atom 4
      - [  0.23335051348416,  0.00000000000000 ]
      - [ -0.40417504318746, -0.00000000000000 ]
      - [  0.00000000000000,  0.00000000000000 ]
  - # 10
    frequency:   40.5250196290
    eigenvector:
    - # atom 1
      - [  0.52987119916387,  0.00000000000000 ]
      - [ -0.03608890991949,  0.00000000000000 ]
      - [  0.00000000000000,  0.00000000000000 ]
    - # atom 2
      - [ -0.52987119916387, -0.00000000000000 ]
      - [  0.03608890991950,  0.00000000000000 ]
      - [ -0.00000000000000, -0.00000000000000 ]
    - # atom 3
      - [  0.46575510220386, -0.00000000000000 ]
      - [ -0.03172203726963,  0.00000000000000 ]
      - [  0.00000000000000,  0.00000000000000 ]
    - # atom 4
      - [ -0.46575510220386, -0.00000000000000 ]
      - [  0.03172203726963,  0.00000000000000 ]
      - [ -0.00000000000000, -0.00000000000000 ]
  - # 11
    frequency:   40.5250196290
    eigenvector:
    - # atom 1
      - [ -0.03608890991949,  0.00000000000000 ]
      - [ -0.52987119916388, -0.00000000000000 ]
      - [  0.00000000000000,  0.00000000000000 ]
    - # atom 2
      - [  0.03608890991950,  0.00000000000000 ]
      - [  0.52987119916387,  0.00000000000000 ]
      - [ -0.00000000000000, -0.00000000000000 ]
    - # atom 3
      - [ -0.03172203726963, -0.00000000000000 ]
      - [ -0.46575510220385, -0.00000000000000 ]
      - [  0.00000000000000,  0.00000000000000 ]
    - # atom 4
      - [  0.03172203726963, -0.00000000000000 ]
      - [  0.46575510220386,  0.00000000000000 ]
      - [ -0.00000000000000, -0.00000000000000 ]
  - # 12
    frequency:   46.9789565094
    eigenvector:
    - # atom 1
      - [ -0.46004664354077,  0.00000000000000 ]
      - [ -0.26560798917787, -0.00000000000000 ]
      - [  0.00000000000000, -0.00000000000000 ]
    - # atom 2
      - [ -0.46004664354077, -0.00000000000000 ]
      - [ -0.26560798917787, -0.00000000000000 ]
      - [  0.00000000000000,  0.00000000000000 ]
    - # atom 3
      - [  0.40417462954172, -0.00000000000000 ]
      - [  0.23335027466574,  0.00000000000000 ]
      - [ -0.00000000000000,  0.00000000000000 ]
    - # atom 4
      - [  0.40417462954172,  0.00000000000000 ]
      - [  0.23335027466574,  0.00000000000000 ]
      - [ -0.00000000000000, -0.00000000000000 ]

- q-position: [    0.0100000,    0.0000000,    0.0000000 ]
  distance:    0.0045960
  band:
  - # 1
    frequency:    0.0489381478
    eigenvector:
    - # atom 1
      - [  0.00000000000005,  0.00000000000000 ]
      - [ -0.00000000000005, -0.00000000000002 ]
      - [ -0.45195494125502,  0.11616221953347 ]
    - # atom 2
      - [  0.00000000000011, -0.00000000000002 ]
      - [ -0.00000000000011,  0.00000000000004 ]
      - [ -0.45195331607614,  0.11616854246984 ]
    - # atom 3
      - [  0.00000000000013, -0.00000000000003 ]
      - [ -0.00000000000013,  0.00000000000004 ]
      - [ -0.51454011844677,  0.13225557204522 ]
    - # atom 4
      - [  0.00000000000006,  0.00000000000000 ]
      - [ -0.00000000000006, -0.00000000000002 ]
      - [ -0.51454193534338,  0.13224850321007 ]
  - # 2
    frequency:    0.5362641448
    eigenvector:
    - # atom 1
      - [ -0.23327661179920,  0.00000000000000 ]
      - [  0.40431587351583, -0.00004650908829 ]
      - [ -0.00000000000008,  0.00000000000004 ]
    - # atom 2
      - [ -0.21595911123849,  0.08820226689505 ]
      - [  0.37431870361028, -0.15282943390451 ]
      - [ -0.00000000000014,  0.00000000000005 ]
    - # atom 3
      - [ -0.24472341034237,  0.10280091600637 ]
      - [  0.42417828350194, -0.17811766490582 ]
      - [ -0.00000000000015,  0.00000000000006 ]
    - # atom 4
      - [ -0.26542534011481, -0.00263907682817 ]
      - [  0.46003560366784,  0.00451243880947 ]
      - [ -0.00000000000009,  0.00000000000005 ]
  - # 3
    frequency:    0.8736247496
    eigenvector:
    - # atom 1
      - [ -0.23306023725542,  0.00000000000000 ]
      - [  0.40442014086329,  0.00122116245844 ]
      - [  0.00000000000006, -0.00000000000000 ]
    - # atom 2
      - [  0.21631693116048, -0.08674133663031 ]
      - [ -0.37491165176502,  0.15165221708566 ]
      - [  0.00000000000002, -0.00000000000002 ]
    - # atom 3
      - [  0.24499727123385, -0.10151253314508 ]
      - [ -0.42463694889123,  0.17742826318150 ]
      - [  0.00000000000003, -0.00000000000002 ]
    - # atom 4
      - [ -0.26517775574380, -0.00303564810111 ]
      - [  0.46016655440843,  0.00663845914911 ]
      - [  0.00000000000007, -0.00000000000000 ]
  - # 4
    frequency:    0.8955604104
    eigenvector:
    - # atom 1
      - [ -0.40428443335968,  0.00000000000000 ]
      - [ -0.23296883376169, -0.00069985550136 ]
      - [ -0.00000000000006, -0.00000000000001 ]
    - # atom 2
      - [ -0.37653452661163, -0.14719936592461 ]
      - [ -0.21723277121728, -0.08417179105114 ]
      - [ -0.00000000000000, -0.00000000000000 ]
    - # atom 3
      - [ -0.42708567469828, -0.17179948144418 ]
      - [ -0.24638536424105, -0.09826569376868 ]
      - [ -0.00000000000000, -0.00000000000000 ]
    - # atom 4
      - [ -0.46032263852147,  0.00450597588313 ]
      - [ -0.26525197473962,  0.00181223177116 ]
      - [ -0.00000000000007, -0.00000000000001 ]
  - # 5
    frequency:    1.1391258598
    eigenvector:
    - # atom 1
      - [ -0.40441570157783,  0.00000000000000 ]
      - [ -0.23334508716736,  0.00002250884028 ]
      - [  0.00000000000002,  0.00000000000000 ]
    - # atom 2
      - [  0.37667022732417,  0.14721276959073 ]
      - [  0.21732794522200,  0.08496172336563 ]
      - [  0.00000000000000, -0.00000000000000 ]
    - # atom 3
      - [  0.42696475538067,  0.17106961491847 ]
      - [  0.24634490969800,  0.09873439160601 ]
      - [  0.00000000000000, -0.00000000000000 ]
    - # atom 4
      - [ -0.45994392044505,  0.00391222837345 ]
      - [ -0.26538474139245,  0.00228771854348 ]
      - [  0.00000000000002,  0.00000000000001 ]
  - # 6
    frequency:    1.4872845045
    eigenvector:
    - # atom 1
      - [ -0.00000000000001,  0.00000000000000 ]
      - [  0.00000000000005,  0.00000000000001 ]
      - [ -0.44724246294880, -0.13625099694065 ]
    - # atom 2
      - [  0.00000000000002,  0.00000000000001 ]
      - [  0.00000000000002,  0.00000000000002 ]
      - [  0.44724436954349,  0.13624473840655 ]
    - # atom 3
      - [  0.00000000000003,  0.00000000000001 ]
      - [  0.00000000000003,  0.00000000000002 ]
      - [  0.50745695546053,  0.15458746237292 ]
    - # atom 4
      - [ -0.00000000000001, -0.00000000000000 ]
      - [  0.00000000000006,  0.00000000000001 ]
      - [ -0.50745483207072, -0.15459443255257 ]
  - # 7
    frequency:   23.2198487444
    eigenvector:
    - # atom 1
      - [  0.00000000000000, -0.00000000000000 ]
      - [  0.00000000000000,  0.00000000000000 ]
      - [  0.53109551826385,  0.01343950550597 ]
    - # atom 2
      - [  0.00000000000000,  0.00000000000000 ]
      - [  0.00000000000000,  0.00000000000000 ]
      - [  0.53109554968223,  0.01343826387285 ]
    - # atom 3
      - [  0.00000000000000,  0.00000000000000 ]
      - [ -0.00000000000000,  0.00000000000000 ]
      - [ -0.46649501778267, -0.01180375176609 ]
    - # atom 4
      - [  0.00000000000000, -0.00000000000000 ]
      - [  0.00000000000000,  0.00000000000000 ]
      - [ -0.46649499369873, -0.01180470354678 ]
  - # 8
    frequency:   24.1198494781
    eigenvector:
    - # atom 1
      - [ -0.00000000000000,  0.00000000000000 ]
      - [  0.00000000000000, -0.00000000000000 ]
      - [ -0.53046256139593,  0.00439501142988 ]
    - # atom 2
      - [  0.00000000000000,  0.00000000000000 ]
      - [  0.00000000000000,  0.00000000000000 ]
      - [  0.53046255128265, -0.00439623189805 ]
    - # atom 3
      - [  0.00000000000000,  0.00000000000000 ]
      - [  0.00000000000000,  0.00000000000000 ]
      - [ -0.46752020569695,  0.00387454473204 ]
    - # atom 4
      - [ -0.00000000000000, -0.00000000000000 ]
      - [  0.00000000000000, -0.00000000000000 ]
      - [  0.46752021378682, -0.00387356844851 ]
  - # 9
    frequency:   40.2181089712
    eigenvector:
    - # atom 1
      - [ -0.26559774928366,  0.00000000000000 ]
      - [  0.46002910380273,  0.00000138634504 ]
      - [  0.00000000000000, -0.00000000000000 ]
    - # atom 2
      - [ -0.26505008154512,  0.01704754227091 ]
      - [  0.45908042583612, -0.02952861259158 ]
      - [ -0.00000000000000,  0.00000000000000 ]
    - # atom 3
      - [  0.23269481052139, -0.01763037685399 ]
      - [ -0.40303961300382,  0.03053562748857 ]
      - [  0.00000000000000, -0.00000000000000 ]
    - # atom 4
      - [  0.23334660502825,  0.00265837419986 ]
      - [ -0.40416848404203, -0.00460333613383 ]
      - [  0.00000000000000,  0.00000000000000 ]
  - # 10
    frequency:   40.5209669200
    eigenvector:
    - # atom 1
      - [  0.26552766152625,  0.00000000000000 ]
      - [ -0.45995934445531,  0.00000024465563 ]
      - [ -0.00000000000000,  0.00000000000000 ]
    - # atom 2
      - [ -0.26495858846117,  0.01737485068313 ]
      - [  0.45897358567749, -0.03009727898281 ]
      - [ -0.00000000000000, -0.00000000000000 ]
    - # atom 3
      - [  0.23273249942069, -0.01759183761581 ]
      - [ -0.40315028661764,  0.03046998154572 ]
      - [  0.00000000000000,  0.00000000000000 ]
    - # atom 4
      - [ -0.23338483731284, -0.00232524187133 ]
      - [  0.40428007252642,  0.00402446683636 ]
      - [  0.00000000000000, -0.00000000000000 ]
  - # 11
    frequency:   40.5509160348
    eigenvector:
    - # atom 1
      - [  0.45995931122323,  0.00000000000000 ]
      - [  0.26552762558806, -0.00000000574008 ]
      - [ -0.00000000000000, -0.00000000000000 ]
    - # atom 2
      - [ -0.45992660929643,  0.00548470984023 ]
      - [ -0.26550874732366,  0.00316623515465 ]
      - [ -0.00000000000000,  0.00000000000000 ]
    - # atom 3
      - [  0.40429936909892, -0.00079218033528 ]
      - [  0.23339600943785, -0.00045545980314 ]
      - [ -0.00000000000000, -0.00000000000000 ]
    - # atom 4
      - [ -0.40428007067649,  0.00402887791882 ]
      - [ -0.23338484663665,  0.00232766525338 ]
      - [ -0.00000000000000,  0.00000000000000 ]
  - # 12
    frequency:   46.9758717896
    eigenvector:
    - # atom 1
      - [ -0.46006229362684,  0.00000000000000 ]
      - [ -0.26561690142507, -0.00000048484929 ]
      - [ -0.00000000000000, -0.00000000000000 ]
    - # atom 2
      - [ -0.46003689218539,  0.00483444366900 ]
      - [ -0.26560223081147,  0.00279165020439 ]
      - [  0.00000000000000,  0.00000000000000 ]
    - # atom 3
      - [  0.40415596980978, -0.00087553025965 ]
      - [  0.23333940562766, -0.00050493082617 ]
      - [ -0.00000000000000, -0.00000000000000 ]
    - # atom 4
      - [  0.40414285540644, -0.00337148484316 ]
      - [  0.23333182818073, -0.00194708285516 ]
      - [ -0.00000000000000,  0.00000000000000 ]

- q-position: [    0.0200000,    0.0000000,    0.0000000 ]
  distance:    0.0091919
  band:
  - # 1
    frequency:    0.0997552295
    eigenvector:
    - # atom 1
      - [ -0.00000000000001,  0.00000000000000 ]
      - [  0.00000000000003,  0.00000000000000 ]
      - [  0.45804193311562,  0.08834753988093 ]
    - # atom 2
      - [ -0.00000000000001,  0.00000000000000 ]
      - [ -0.00000000000000,  0.00000000000001 ]
      - [  0.45805186109566,  0.08829605224555 ]
    - # atom 3
      - [ -0.00000000000001,  0.00000000000000 ]
      - [ -0.00000000000000,  0.00000000000001 ]
      - [  0.52179971595400,  0.10058506914557 ]
    - # atom 4
      - [ -0.00000000000001, -0.00000000000000 ]
      - [  0.00000000000003,  0.00000000000000 ]
      - [  0.52178866858616,  0.10064236205361 ]
  - # 2
    frequency:    1.0735320365
    eigenvector:
    - # atom 1
      - [ -0.23338775209025,  0.00000000000000 ]
      - [  0.40449755105879, -0.00002690174902 ]
      - [ -0.00000000000001,  0.00000000000002 ]
    - # atom 2
      - [ -0.17562698550114,  0.15370427706976 ]
      - [  0.30440680718095, -0.26637335692255 ]
      - [ -0.00000000000002, -0.00000000000002 ]
    - # atom 3
      - [ -0.19611581660983,  0.17874432506182 ]
      - [  0.33992990966402, -0.30975570517339 ]
      - [ -0.00000000000002, -0.00000000000002 ]
    - # atom 4
      - [ -0.26529668497886, -0.00534941170178 ]
      - [  0.45979980134671,  0.00922404754667 ]
      - [ -0.00000000000001,  0.00000000000002 ]
  - # 3
    frequency:    1.3017127456
    eigenvector:
    - # atom 1
      - [ -0.23317625723468,  0.00000000000000 ]
      - [  0.40418151263411,  0.00006360708543 ]
      - [  0.00000000000003, -0.00000000000004 ]
    - # atom 2
      - [  0.17593702307798, -0.15302722257313 ]
      - [ -0.30492280536433,  0.26530130412373 ]
      - [ -0.00000000000005,  0.00000000000003 ]
    - # atom 3
      - [  0.19633408611024, -0.17871197316669 ]
      - [ -0.34028595278242,  0.30981698061606 ]
      - [ -0.00000000000006,  0.00000000000004 ]
    - # atom 4
      - [ -0.26542252743566, -0.00599371767105 ]
      - [  0.46007827233240,  0.01044387221290 ]
      - [  0.00000000000003, -0.00000000000005 ]
  - # 4
    frequency:    1.4874349233
    eigenvector:
    - # atom 1
      - [ -0.00000000000003,  0.00000000000000 ]
      - [  0.00000000000004, -0.00000000000000 ]
      - [ -0.42517479085978,  0.19412613637055 ]
    - # atom 2
      - [  0.00000000000007, -0.00000000000001 ]
      - [ -0.00000000000003,  0.00000000000000 ]
      - [  0.42515301299968, -0.19417382712938 ]
    - # atom 3
      - [  0.00000000000008, -0.00000000000002 ]
      - [ -0.00000000000004,  0.00000000000000 ]
      - [  0.48264977639734, -0.22043283271504 ]
    - # atom 4
      - [ -0.00000000000004, -0.00000000000000 ]
      - [  0.00000000000004, -0.00000000000000 ]
      - [ -0.48267401729498,  0.22037974821556 ]
  - # 5
    frequency:    1.7932050692
    eigenvector:
    - # atom 1
      - [  0.40398285427444, -0.00000000000000 ]
      - [  0.23305386171034,  0.00003101539900 ]
      - [  0.00000000000001,  0.00000000000002 ]
    - # atom 2
      - [  0.32704045329658,  0.23716384306095 ]
      - [  0.18868473129739,  0.13679245445336 ]
      - [ -0.00000000000002, -0.00000000000001 ]
    - # atom 3
      - [  0.36739960249756,  0.27742598726283 ]
      - [  0.21196274531565,  0.16002468030398 ]
      - [ -0.00000000000002, -0.00000000000001 ]
    - # atom 4
      - [  0.46029167792236, -0.00890042467212 ]
      - [  0.26553716164029, -0.00511072363249 ]
      - [  0.00000000000002,  0.00000000000002 ]
  - # 6
    frequency:    1.9553388549
    eigenvector:
    - # atom 1
      - [ -0.40454617006328,  0.00000000000000 ]
      - [ -0.23342355588032,  0.00000940696233 ]
      - [  0.00000000000003,  0.00000000000001 ]
    - # atom 2
      - [  0.32696772694356,  0.23822197474216 ]
      - [  0.18865517506739,  0.13746192726914 ]
      - [ -0.00000000000002, -0.00000000000000 ]
    - # atom 3
      - [  0.36692335877233,  0.27716934636201 ]
      - [  0.21170348907131,  0.15994334840283 ]
      - [ -0.00000000000002, -0.00000000000000 ]
    - # atom 4
      - [ -0.45977428380979,  0.00795020269787 ]
      - [ -0.26529043370844,  0.00460735999637 ]
      - [  0.00000000000004,  0.00000000000001 ]
  - # 7
    frequency:   23.2129706911
    eigenvector:
    - # atom 1
      - [ -0.00000000000000,  0.00000000000000 ]
      - [ -0.00000000000000,  0.00000000000000 ]
      - [  0.53139152281558, -0.00391780359076 ]
    - # atom 2
      - [  0.00000000000000, -0.00000000000000 ]
      - [  0.00000000000000, -0.00000000000000 ]
      - [  0.53139144741759, -0.00392801688751 ]
    - # atom 3
      - [  0.00000000000000, -0.00000000000000 ]
      - [  0.00000000000000, -0.00000000000000 ]
      - [ -0.46647166549282,  0.00344754798706 ]
    - # atom 4
      - [  0.00000000000000,  0.00000000000000 ]
      - [ -0.00000000000000,  0.00000000000000 ]
      - [ -0.46647172303704,  0.00343975313444 ]
  - # 8
    frequency:   24.1089060938
    eigenvector:
    - # atom 1
      - [  0.00000000000000,  0.00000000000000 ]
      - [ -0.00000000000000, -0.00000000000000 ]
      - [ -0.53045723330246, -0.01251255496483 ]
    - # atom 2
      - [ -0.00000000000000, -0.00000000000000 ]
      - [ -0.00000000000000, -0.00000000000000 ]
      - [  0.53045747246912,  0.01250241162019 ]
    - # atom 3
      - [  0.00000000000000, -0.00000000000000 ]
      - [ -0.00000000000000,  0.00000000000000 ]
      - [ -0.46726572828263, -0.01101357243856 ]
    - # atom 4
      - [ -0.00000000000000, -0.00000000000000 ]
      - [  0.00000000000000,  0.00000000000000 ]
      - [  0.46726554278081,  0.01102143979299 ]
  - # 9
    frequency:   40.2074752959
    eigenvector:
    - # atom 1
      - [ -0.26556809187829,  0.00000000000000 ]
      - [  0.45997834438111,  0.00000333562784 ]
      - [ -0.00000000000000,  0.00000000000000 ]
    - # atom 2
      - [ -0.26340506952046,  0.03382574130437 ]
      - [  0.45623144743256, -0.05859132772269 ]
      - [ -0.00000000000000,  0.00000000000000 ]
    - # atom 3
      - [  0.23075765722863, -0.03498705486465 ]
      - [ -0.39968515778465,  0.06059781790070 ]
      - [  0.00000000000000, -0.00000000000000 ]
    - # atom 4
      - [  0.23333450706851,  0.00531019668646 ]
      - [ -0.40414818710101, -0.00919585507894 ]
      - [  0.00000000000000, -0.00000000000000 ]
  - # 10
    frequency:   40.5088085266
    eigenvector:
    - # atom 1
      - [  0.26552971935359,  0.00000000000000 ]
      - [ -0.45996249943872,  0.00000043111217 ]
      - [  0.00000000000000, -0.00000000000000 ]
    - # atom 2
      - [ -0.26328300868098,  0.03446866983061 ]
      - [  0.45607070232032, -0.05970774970766 ]
      - [  0.00000000000000, -0.00000000000000 ]
    - # atom 3
      - [  0.23076924820189, -0.03490737848321 ]
      - [ -0.39974980748388,  0.06046145613753 ]
      - [  0.00000000000000, -0.00000000000000 ]
    - # atom 4
      - [ -0.23334801479874, -0.00465563934577 ]
      - [  0.40421598856944,  0.00805796788893 ]
      - [ -0.00000000000000,  0.00000000000000 ]
  - # 11
    frequency:   40.6274855753
    eigenvector:
    - # atom 1
      - [  0.45996332923791,  0.00000000000000 ]
      - [  0.26553011483448,  0.00000034414480 ]
      - [  0.00000000000000,  0.00000000000000 ]
    - # atom 2
      - [ -0.45983170306630,  0.01100314040519 ]
      - [ -0.26545412073468,  0.00635229636428 ]
      - [  0.00000000000000,  0.00000000000000 ]
    - # atom 3
      - [  0.40429212664856, -0.00162473958526 ]
      - [  0.23339206701409, -0.00093460066730 ]
      - [ -0.00000000000000,  0.00000000000000 ]
    - # atom 4
      - [ -0.40421529837808,  0.00804711164655 ]
      - [ -0.23334763529400,  0.00464881987403 ]
      - [ -0.00000000000000, -0.00000000000000 ]
  - # 12
    frequency:   46.9666100664
    eigenvector:
    - # atom 1
      - [ -0.46010926142407,  0.00000000000000 ]
      - [ -0.26564365459850, -0.00000096075829 ]
      - [  0.00000000000000, -0.00000000000000 ]
    - # atom 2
      - [ -0.46000629754688,  0.00973337893109 ]
      - [ -0.26558418817531,  0.00562051782593 ]
      - [  0.00000000000000,  0.00000000000000 ]
    - # atom 3
      - [  0.40409979528720, -0.00178788877623 ]
      - [  0.23330669084035, -0.00103113244254 ]
      - [ -0.00000000000000, -0.00000000000000 ]
    - # atom 4
      - [  0.40404718716826, -0.00676103829664 ]
      - [  0.23327629423710, -0.00390458345997 ]
      - [ -0.00000000000000,  0.00000000000000 ]

- q-position: [    0.0300000,    0.0000000,    0.0000000 ]
  distance:    0.0137879
  band:
  - # 1
    frequency:    0.1536151952
    eigenvector:
    - # atom 1
      - [ -0.00000000000000,  0.00000000000000 ]
      - [  0.00000000000000,  0.00000000000000 ]
      - [  0.10155402482008,  0.45502202403853 ]
    - # atom 2
      - [  0.00000000000000, -0.00000000000000 ]
      - [ -0.00000000000000, -0.00000000000001 ]
      - [  0.10172714815880,  0.45498335095340 ]
    - # atom 3
      - [  0.00000000000000, -0.00000000000000 ]
      - [ -0.00000000000000, -0.00000000000001 ]
      - [  0.11600001267057,  0.51883112352976 ]
    - # atom 4
      - [ -0.00000000000000, -0.00000000000000 ]
      - [  0.00000000000000,  0.00000000000000 ]
      - [  0.11580735160565,  0.51887416104174 ]
  - # 2
    frequency:    1.4880894864
    eigenvector:
    - # atom 1
      - [ -0.00000000000001,  0.00000000000000 ]
      - [  0.00000000000002,  0.00000000000000 ]
      - [ -0.15070164932746,  0.44218471535653 ]
    - # atom 2
      - [ -0.00000000000001,  0.00000000000003 ]
      - [  0.00000000000002, -0.00000000000006 ]
      - [  0.15053385601193, -0.44224186572406 ]
    - # atom 3
      - [ -0.00000000000001,  0.00000000000003 ]
      - [  0.00000000000002, -0.00000000000007 ]
      - [  0.17104655304724, -0.50249852446122 ]
    - # atom 4
      - [ -0.00000000000002, -0.00000000000000 ]
      - [  0.00000000000003,  0.00000000000000 ]
      - [ -0.17123353638271,  0.50243483797698 ]
  - # 3
    frequency:    1.6116835216
    eigenvector:
    - # atom 1
      - [  0.23352448185313,  0.00000000000000 ]
      - [ -0.40472918453726,  0.00001167147421 ]
      - [ -0.00000000000003,  0.00000000000004 ]
    - # atom 2
      - [  0.13033072335890, -0.19377199532819 ]
      - [ -0.22589027313729,  0.33582629059417 ]
      - [  0.00000000000002, -0.00000000000004 ]
    - # atom 3
      - [  0.14120286605465, -0.22452484809021 ]
      - [ -0.24475405418928,  0.38910975262606 ]
      - [  0.00000000000003, -0.00000000000005 ]
    - # atom 4
      - [  0.26511010322012,  0.00814186481472 ]
      - [ -0.45947022446708, -0.01407335990967 ]
      - [ -0.00000000000003,  0.00000000000005 ]
  - # 4
    frequency:    1.7985988692
    eigenvector:
    - # atom 1
      - [  0.23310102242919,  0.00000000000000 ]
      - [ -0.40403448755551, -0.00003921028315 ]
      - [  0.00000000000002, -0.00000000000002 ]
    - # atom 2
      - [ -0.13071640797963,  0.19300079622239 ]
      - [  0.22653855717567, -0.33455066998079 ]
      - [ -0.00000000000001,  0.00000000000001 ]
    - # atom 3
      - [ -0.14150092422613,  0.22473404471731 ]
      - [  0.24524940298428, -0.38954444238727 ]
      - [ -0.00000000000002,  0.00000000000002 ]
    - # atom 4
      - [  0.26542286886839,  0.00886583856560 ]
      - [ -0.46006022386493, -0.01538611959262 ]
      - [  0.00000000000002, -0.00000000000002 ]
  - # 5
    frequency:    2.6923297341
    eigenvector:
    - # atom 1
      - [  0.40375100220868, -0.00000000000000 ]
      - [  0.23293202103506,  0.00001692274369 ]
      - [  0.00000000000000,  0.00000000000000 ]
    - # atom 2
      - [  0.28834194254606,  0.28261952507379 ]
      - [  0.16636207404259,  0.16303676588422 ]
      - [  0.00000000000000, -0.00000000000000 ]
    - # atom 3
      - [  0.31954564087597,  0.33168614419355 ]